<?xml version="1.0" encoding="UTF-8"?>

<!-- generated on Fri Oct  9 15:55:43 2015 by SUMO Version 0.23.0
<?xml version="1.0" encoding="UTF-8"?>

<configuration xmlns:xsi="http://www.w3.org/2001/XMLSchema-instance" xsi:noNamespaceSchemaLocation="http://sumo.dlr.de/xsd/sumoConfiguration.xsd">

    <input>
        <net-file value="sbg.net.xml"/>
        <route-files value="sbg.rou.xml"/>
        <additional-files value="sbg.poly.xml"/>
    </input>

    <output>
        <netstate-dump value="sbg120.state.xml"/>
        <fcd-output value="sbg.fcdoutput.xml"/>
    </output>

    <time>
        <begin value="0"/>
        <end value="120"/>
    </time>

</configuration>
-->

<fcd-export xmlns:xsi="http://www.w3.org/2001/XMLSchema-instance" xsi:noNamespaceSchemaLocation="http://sumo.dlr.de/xsd/fcd_file.xsd">
    <timestep time="0.00"/>
    <timestep time="1.00"/>
    <timestep time="2.00">
        <vehicle id="2" x="1701.90" y="2442.96" angle="110.50" type="DEFAULT_VEHTYPE" speed="0.00" pos="5.10" lane="19363642#1_0" slope="0.00"/>
    </timestep>
    <timestep time="3.00">
        <vehicle id="2" x="1703.25" y="2443.46" angle="110.50" type="DEFAULT_VEHTYPE" speed="1.44" pos="6.54" lane="19363642#1_0" slope="0.00"/>
    </timestep>
    <timestep time="4.00">
        <vehicle id="2" x="1706.17" y="2444.55" angle="110.50" type="DEFAULT_VEHTYPE" speed="3.12" pos="9.66" lane="19363642#1_0" slope="0.00"/>
        <vehicle id="4" x="1429.44" y="2781.61" angle="39.58" type="DEFAULT_VEHTYPE" speed="0.00" pos="5.10" lane="27692319_0" slope="0.00"/>
    </timestep>
    <timestep time="5.00">
        <vehicle id="2" x="1711.46" y="2446.53" angle="110.50" type="DEFAULT_VEHTYPE" speed="5.66" pos="15.31" lane="19363642#1_0" slope="0.00"/>
        <vehicle id="4" x="1430.37" y="2779.89" angle="31.19" type="DEFAULT_VEHTYPE" speed="1.96" pos="7.06" lane="27692319_0" slope="0.00"/>
    </timestep>
    <timestep time="6.00">
        <vehicle id="2" x="1718.48" y="2449.16" angle="110.50" type="DEFAULT_VEHTYPE" speed="7.49" pos="22.80" lane="19363642#1_0" slope="0.00"/>
        <vehicle id="4" x="1432.52" y="2775.93" angle="28.52" type="DEFAULT_VEHTYPE" speed="4.50" pos="11.57" lane="27692319_0" slope="0.00"/>
        <vehicle id="6" x="2152.91" y="1599.99" angle="16.45" type="DEFAULT_VEHTYPE" speed="0.00" pos="0.20" lane="24792674#0_0" slope="0.00"/>
    </timestep>
    <timestep time="7.00">
        <vehicle id="2" x="1727.02" y="2452.35" angle="110.50" type="DEFAULT_VEHTYPE" speed="9.12" pos="31.93" lane="19363642#1_0" slope="0.00"/>
        <vehicle id="4" x="1435.76" y="2769.97" angle="28.52" type="DEFAULT_VEHTYPE" speed="6.78" pos="18.35" lane="27692319_0" slope="0.00"/>
        <vehicle id="6" x="2154.60" y="1600.86" angle="77.47" type="DEFAULT_VEHTYPE" speed="1.89" pos="1.89" lane=":1357435060_4_0" slope="0.00"/>
    </timestep>
    <timestep time="8.00">
        <vehicle id="2" x="1737.10" y="2456.12" angle="110.50" type="DEFAULT_VEHTYPE" speed="10.75" pos="42.68" lane="19363642#1_0" slope="0.00"/>
        <vehicle id="4" x="1440.24" y="2761.73" angle="28.52" type="DEFAULT_VEHTYPE" speed="9.37" pos="27.72" lane="27692319_0" slope="0.00"/>
        <vehicle id="6" x="2157.18" y="1602.98" angle="125.79" type="DEFAULT_VEHTYPE" speed="3.62" pos="0.97" lane=":564476777_7_0" slope="0.00"/>
        <vehicle id="8" x="2068.96" y="3046.78" angle="-140.08" type="DEFAULT_VEHTYPE" speed="0.00" pos="5.10" lane="-183786379#2_0" slope="0.00"/>
    </timestep>
    <timestep time="9.00">
        <vehicle id="2" x="1749.04" y="2460.58" angle="110.50" type="DEFAULT_VEHTYPE" speed="12.75" pos="55.43" lane="19363642#1_0" slope="0.00"/>
        <vehicle id="4" x="1445.68" y="2751.73" angle="28.52" type="DEFAULT_VEHTYPE" speed="11.39" pos="39.11" lane="27692319_0" slope="0.00"/>
        <vehicle id="6" x="2155.65" y="1608.22" angle="-162.82" type="DEFAULT_VEHTYPE" speed="5.48" pos="6.45" lane=":564476777_7_0" slope="0.00"/>
        <vehicle id="8" x="2068.00" y="3048.70" angle="-147.51" type="DEFAULT_VEHTYPE" speed="2.26" pos="1.69" lane=":1342943199_9_0" slope="0.00"/>
        <vehicle id="9" x="1619.41" y="2567.92" angle="-78.82" type="DEFAULT_VEHTYPE" speed="0.00" pos="5.10" lane="24512160#1_0" slope="0.00"/>
    </timestep>
    <timestep time="10.00">
        <vehicle id="2" x="1761.98" y="2465.42" angle="110.50" type="DEFAULT_VEHTYPE" speed="13.81" pos="69.24" lane="19363642#1_0" slope="0.00"/>
        <vehicle id="4" x="1451.76" y="2740.52" angle="28.52" type="DEFAULT_VEHTYPE" speed="12.75" pos="51.86" lane="27692319_0" slope="0.00"/>
        <vehicle id="6" x="2152.84" y="1615.35" angle="-158.39" type="DEFAULT_VEHTYPE" speed="7.66" pos="7.25" lane="24909875#1_0" slope="0.00"/>
        <vehicle id="8" x="2065.65" y="3046.60" angle="-66.26" type="DEFAULT_VEHTYPE" speed="3.97" pos="0.83" lane="183786379#2_0" slope="0.00"/>
        <vehicle id="9" x="1616.91" y="2567.43" angle="-78.82" type="DEFAULT_VEHTYPE" speed="2.54" pos="7.64" lane="24512160#1_0" slope="0.00"/>
    </timestep>
    <timestep time="11.00">
        <vehicle id="11" x="1597.41" y="2612.75" angle="-67.18" type="DEFAULT_VEHTYPE" speed="0.00" pos="5.10" lane="-19363182#6_0" slope="0.00"/>
        <vehicle id="2" x="1774.36" y="2470.05" angle="110.50" type="DEFAULT_VEHTYPE" speed="13.22" pos="82.46" lane="19363642#1_0" slope="0.00"/>
        <vehicle id="4" x="1458.21" y="2728.67" angle="28.52" type="DEFAULT_VEHTYPE" speed="13.49" pos="65.35" lane="27692319_0" slope="0.00"/>
        <vehicle id="6" x="2149.57" y="1623.78" angle="-159.16" type="DEFAULT_VEHTYPE" speed="9.04" pos="16.29" lane="24909875#1_0" slope="0.00"/>
        <vehicle id="8" x="2065.71" y="3042.13" angle="0.58" type="DEFAULT_VEHTYPE" speed="4.49" pos="0.50" lane=":1342943171_1_0" slope="0.00"/>
        <vehicle id="9" x="1612.68" y="2566.59" angle="-78.82" type="DEFAULT_VEHTYPE" speed="4.32" pos="11.96" lane="24512160#1_0" slope="0.00"/>
    </timestep>
    <timestep time="12.00">
        <vehicle id="11" x="1595.37" y="2611.90" angle="-67.18" type="DEFAULT_VEHTYPE" speed="2.21" pos="7.31" lane="-19363182#6_0" slope="0.00"/>
        <vehicle id="12" x="2244.62" y="2256.21" angle="-135.53" type="DEFAULT_VEHTYPE" speed="0.00" pos="5.10" lane="-245047259#0_0" slope="0.00"/>
        <vehicle id="2" x="1786.29" y="2474.51" angle="110.50" type="DEFAULT_VEHTYPE" speed="12.74" pos="95.20" lane="19363642#1_0" slope="0.00"/>
        <vehicle id="4" x="1464.59" y="2716.92" angle="28.52" type="DEFAULT_VEHTYPE" speed="13.37" pos="78.73" lane="27692319_0" slope="0.00"/>
        <vehicle id="6" x="2146.01" y="1634.53" angle="-161.68" type="DEFAULT_VEHTYPE" speed="11.33" pos="27.62" lane="24909875#1_0" slope="0.00"/>
        <vehicle id="8" x="2071.37" y="3038.78" angle="69.80" type="DEFAULT_VEHTYPE" speed="7.05" pos="7.55" lane=":1342943171_1_0" slope="0.00"/>
        <vehicle id="9" x="1606.59" y="2565.39" angle="-78.82" type="DEFAULT_VEHTYPE" speed="6.21" pos="18.17" lane="24512160#1_0" slope="0.00"/>
    </timestep>
    <timestep time="13.00">
        <vehicle id="11" x="1591.34" y="2610.20" angle="-67.18" type="DEFAULT_VEHTYPE" speed="4.38" pos="11.68" lane="-19363182#6_0" slope="0.00"/>
        <vehicle id="12" x="2242.91" y="2257.94" angle="-135.53" type="DEFAULT_VEHTYPE" speed="2.43" pos="7.53" lane="-245047259#0_0" slope="0.00"/>
        <vehicle id="13" x="1375.43" y="2987.47" angle="-151.37" type="DEFAULT_VEHTYPE" speed="0.00" pos="3.12" lane="24912630#2_0" slope="0.00"/>
        <vehicle id="2" x="1798.37" y="2479.03" angle="110.50" type="DEFAULT_VEHTYPE" speed="12.90" pos="108.10" lane="19363642#1_0" slope="0.00"/>
        <vehicle id="4" x="1469.92" y="2704.33" angle="21.65" type="DEFAULT_VEHTYPE" speed="13.68" pos="92.41" lane="27692319_0" slope="0.00"/>
        <vehicle id="6" x="2142.08" y="1647.85" angle="-165.25" type="DEFAULT_VEHTYPE" speed="13.89" pos="41.52" lane="24909875#1_0" slope="0.00"/>
        <vehicle id="8" x="2080.10" y="3038.03" angle="86.25" type="DEFAULT_VEHTYPE" speed="8.76" pos="5.76" lane="227846819#5_1" slope="0.00"/>
        <vehicle id="9" x="1599.64" y="2564.01" angle="-78.82" type="DEFAULT_VEHTYPE" speed="7.09" pos="25.25" lane="24512160#1_0" slope="0.00"/>
    </timestep>
    <timestep time="14.00">
        <vehicle id="11" x="1585.11" y="2607.58" angle="-67.18" type="DEFAULT_VEHTYPE" speed="6.76" pos="18.44" lane="-19363182#6_0" slope="0.00"/>
        <vehicle id="12" x="2239.91" y="2261.01" angle="-135.53" type="DEFAULT_VEHTYPE" speed="4.29" pos="11.82" lane="-245047259#0_0" slope="0.00"/>
        <vehicle id="13" x="1374.60" y="2989.59" angle="-155.06" type="DEFAULT_VEHTYPE" speed="2.29" pos="2.29" lane=":1936910920_0_0" slope="0.00"/>
        <vehicle id="14" x="2052.75" y="1838.79" angle="36.17" type="DEFAULT_VEHTYPE" speed="0.00" pos="5.10" lane="-357828267#3_0" slope="0.00"/>
        <vehicle id="2" x="1810.88" y="2483.70" angle="110.50" type="DEFAULT_VEHTYPE" speed="13.36" pos="121.45" lane="19363642#1_0" slope="0.00"/>
        <vehicle id="4" x="1474.59" y="2692.59" angle="21.65" type="DEFAULT_VEHTYPE" speed="12.64" pos="105.05" lane="27692319_0" slope="0.00"/>
        <vehicle id="6" x="2137.95" y="1663.52" angle="-165.25" type="DEFAULT_VEHTYPE" speed="16.20" pos="57.72" lane="24909875#1_0" slope="0.00"/>
        <vehicle id="8" x="2091.27" y="3037.30" angle="86.25" type="DEFAULT_VEHTYPE" speed="11.19" pos="16.96" lane="227846819#5_1" slope="0.00"/>
        <vehicle id="9" x="1591.80" y="2562.46" angle="-78.82" type="DEFAULT_VEHTYPE" speed="7.99" pos="33.24" lane="24512160#1_0" slope="0.00"/>
    </timestep>
    <timestep time="15.00">
        <vehicle id="11" x="1577.31" y="2604.30" angle="-67.18" type="DEFAULT_VEHTYPE" speed="8.46" pos="26.90" lane="-19363182#6_0" slope="0.00"/>
        <vehicle id="12" x="2235.93" y="2265.05" angle="-135.53" type="DEFAULT_VEHTYPE" speed="5.67" pos="17.49" lane="-245047259#0_0" slope="0.00"/>
        <vehicle id="13" x="1372.02" y="2991.45" angle="-135.42" type="DEFAULT_VEHTYPE" speed="3.64" pos="0.66" lane=":240132392_3_0" slope="0.00"/>
        <vehicle id="14" x="2054.05" y="1837.02" angle="36.17" type="DEFAULT_VEHTYPE" speed="2.20" pos="7.30" lane="-357828267#3_0" slope="0.00"/>
        <vehicle id="15" x="1526.45" y="2962.09" angle="-115.20" type="DEFAULT_VEHTYPE" speed="0.00" pos="0.39" lane="121173769#0_0" slope="0.00"/>
        <vehicle id="2" x="1823.78" y="2488.53" angle="110.50" type="DEFAULT_VEHTYPE" speed="13.77" pos="135.23" lane="19363642#1_0" slope="0.00"/>
        <vehicle id="4" x="1479.39" y="2680.49" angle="21.65" type="DEFAULT_VEHTYPE" speed="13.02" pos="118.07" lane="27692319_0" slope="0.00"/>
        <vehicle id="6" x="2133.41" y="1680.97" angle="-165.82" type="DEFAULT_VEHTYPE" speed="18.03" pos="75.75" lane="24909875#1_0" slope="0.00"/>
        <vehicle id="8" x="2103.99" y="3036.46" angle="86.25" type="DEFAULT_VEHTYPE" speed="12.74" pos="29.69" lane="227846819#5_1" slope="0.00"/>
        <vehicle id="9" x="1584.54" y="2561.03" angle="-78.82" type="DEFAULT_VEHTYPE" speed="7.40" pos="40.64" lane="24512160#1_0" slope="0.00"/>
    </timestep>
    <timestep time="16.00">
        <vehicle id="11" x="1567.30" y="2600.08" angle="-67.18" type="DEFAULT_VEHTYPE" speed="10.86" pos="37.77" lane="-19363182#6_0" slope="0.00"/>
        <vehicle id="12" x="2230.16" y="2270.93" angle="-135.53" type="DEFAULT_VEHTYPE" speed="8.24" pos="25.73" lane="-245047259#0_0" slope="0.00"/>
        <vehicle id="13" x="1372.21" y="2988.15" angle="-14.42" type="DEFAULT_VEHTYPE" speed="3.97" pos="2.71" lane=":1936910921_1_0" slope="0.00"/>
        <vehicle id="14" x="2056.67" y="1833.43" angle="36.17" type="DEFAULT_VEHTYPE" speed="4.44" pos="11.74" lane="-357828267#3_0" slope="0.00"/>
        <vehicle id="15" x="1525.43" y="2958.94" angle="-104.74" type="DEFAULT_VEHTYPE" speed="0.00" pos="0.39" lane="121173769#0_1" slope="0.00"/>
        <vehicle id="16" x="1382.78" y="2980.32" angle="83.92" type="DEFAULT_VEHTYPE" speed="0.00" pos="0.20" lane="219287422#6_0" slope="0.00"/>
        <vehicle id="2" x="1832.83" y="2491.91" angle="110.50" type="DEFAULT_VEHTYPE" speed="9.66" pos="144.88" lane="19363642#1_0" slope="0.00"/>
        <vehicle id="4" x="1484.06" y="2668.73" angle="21.65" type="DEFAULT_VEHTYPE" speed="12.65" pos="130.72" lane="27692319_0" slope="0.00"/>
        <vehicle id="6" x="2128.70" y="1700.19" angle="-166.24" type="DEFAULT_VEHTYPE" speed="19.79" pos="95.55" lane="24909875#1_0" slope="0.00"/>
        <vehicle id="8" x="2118.55" y="3035.51" angle="86.25" type="DEFAULT_VEHTYPE" speed="14.58" pos="44.28" lane="227846819#5_1" slope="0.00"/>
        <vehicle id="9" x="1576.60" y="2559.46" angle="-78.82" type="DEFAULT_VEHTYPE" speed="8.09" pos="48.73" lane="24512160#1_0" slope="0.00"/>
    </timestep>
    <timestep time="17.00">
        <vehicle id="11" x="1555.00" y="2594.90" angle="-67.18" type="DEFAULT_VEHTYPE" speed="13.35" pos="51.12" lane="-19363182#6_0" slope="0.00"/>
        <vehicle id="12" x="2223.09" y="2278.14" angle="-135.53" type="DEFAULT_VEHTYPE" speed="10.10" pos="35.83" lane="-245047259#0_0" slope="0.00"/>
        <vehicle id="13" x="1375.00" y="2982.47" angle="26.92" type="DEFAULT_VEHTYPE" speed="6.33" pos="0.62" lane=":2279292744_2_0" slope="0.00"/>
        <vehicle id="14" x="2060.66" y="1827.97" angle="36.17" type="DEFAULT_VEHTYPE" speed="6.77" pos="18.51" lane="-357828267#3_0" slope="0.00"/>
        <vehicle id="15" x="1524.07" y="2959.25" angle="-103.88" type="DEFAULT_VEHTYPE" speed="1.39" pos="1.39" lane=":1732879321_6_0" slope="0.00"/>
        <vehicle id="16" x="1385.03" y="2979.22" angle="73.80" type="DEFAULT_VEHTYPE" speed="2.54" pos="2.54" lane=":553432942_3_0" slope="0.00"/>
        <vehicle id="17" x="1273.80" y="1966.68" angle="91.25" type="DEFAULT_VEHTYPE" speed="0.00" pos="0.20" lane="133868579#4_0" slope="0.00"/>
        <vehicle id="2" x="1837.75" y="2493.75" angle="110.49" type="DEFAULT_VEHTYPE" speed="5.25" pos="150.13" lane="19363642#1_0" slope="0.00"/>
        <vehicle id="4" x="1490.69" y="2660.64" angle="75.07" type="DEFAULT_VEHTYPE" speed="12.60" pos="143.32" lane="27692319_0" slope="0.00"/>
        <vehicle id="6" x="2122.67" y="1720.80" angle="-161.64" type="DEFAULT_VEHTYPE" speed="21.48" pos="8.50" lane="24909875#2_0" slope="0.00"/>
        <vehicle id="8" x="2135.62" y="3034.39" angle="86.25" type="DEFAULT_VEHTYPE" speed="17.10" pos="61.37" lane="227846819#5_1" slope="0.00"/>
        <vehicle id="9" x="1568.83" y="2557.92" angle="-78.82" type="DEFAULT_VEHTYPE" speed="7.92" pos="56.65" lane="24512160#1_0" slope="0.00"/>
    </timestep>
    <timestep time="18.00">
        <vehicle id="11" x="1542.45" y="2589.62" angle="-67.18" type="DEFAULT_VEHTYPE" speed="13.61" pos="64.73" lane="-19363182#6_0" slope="0.00"/>
        <vehicle id="12" x="2214.81" y="2286.57" angle="-135.51" type="DEFAULT_VEHTYPE" speed="11.82" pos="47.65" lane="-245047259#0_0" slope="0.00"/>
        <vehicle id="13" x="1379.14" y="2975.34" angle="31.08" type="DEFAULT_VEHTYPE" speed="8.26" pos="0.32" lane=":2279292741_2_0" slope="0.00"/>
        <vehicle id="14" x="2064.76" y="1822.37" angle="36.17" type="DEFAULT_VEHTYPE" speed="6.94" pos="25.45" lane="-357828267#3_0" slope="0.00"/>
        <vehicle id="15" x="1520.92" y="2959.78" angle="-100.73" type="DEFAULT_VEHTYPE" speed="3.19" pos="4.59" lane=":1732879321_6_0" slope="0.00"/>
        <vehicle id="16" x="1387.50" y="2976.03" angle="40.75" type="DEFAULT_VEHTYPE" speed="4.07" pos="6.61" lane=":553432942_3_0" slope="0.00"/>
        <vehicle id="17" x="1275.62" y="1966.83" angle="92.47" type="DEFAULT_VEHTYPE" speed="1.84" pos="0.54" lane=":156462456_4_0" slope="0.00"/>
        <vehicle id="18" x="1304.93" y="2818.37" angle="-30.34" type="DEFAULT_VEHTYPE" speed="0.00" pos="5.10" lane="-183000361#0_0" slope="0.00"/>
        <vehicle id="2" x="1843.12" y="2491.78" angle="54.32" type="DEFAULT_VEHTYPE" speed="6.91" pos="0.56" lane="19363611#3_0" slope="0.00"/>
        <vehicle id="4" x="1503.88" y="2663.19" angle="100.92" type="DEFAULT_VEHTYPE" speed="13.43" pos="156.75" lane="27692319_0" slope="0.00"/>
        <vehicle id="6" x="2116.82" y="1736.79" angle="-158.74" type="DEFAULT_VEHTYPE" speed="17.02" pos="25.52" lane="24909875#2_0" slope="0.00"/>
        <vehicle id="8" x="2155.20" y="3033.29" angle="86.88" type="DEFAULT_VEHTYPE" speed="19.59" pos="80.97" lane="227846819#5_1" slope="0.00"/>
        <vehicle id="9" x="1561.03" y="2556.38" angle="-78.82" type="DEFAULT_VEHTYPE" speed="7.95" pos="64.60" lane="24512160#1_0" slope="0.00"/>
    </timestep>
    <timestep time="19.00">
        <vehicle id="11" x="1532.74" y="2585.54" angle="-67.18" type="DEFAULT_VEHTYPE" speed="10.54" pos="75.26" lane="-19363182#6_0" slope="0.00"/>
        <vehicle id="12" x="2205.35" y="2296.20" angle="-135.51" type="DEFAULT_VEHTYPE" speed="13.50" pos="61.14" lane="-245047259#0_0" slope="0.00"/>
        <vehicle id="13" x="1385.14" y="2966.97" angle="37.67" type="DEFAULT_VEHTYPE" speed="10.31" pos="10.63" lane=":2279292741_2_0" slope="0.00"/>
        <vehicle id="14" x="2066.18" y="1826.03" angle="-155.57" type="DEFAULT_VEHTYPE" speed="9.41" pos="3.35" lane="357828267#3_0" slope="0.00"/>
        <vehicle id="15" x="1519.45" y="2956.93" angle="-36.46" type="DEFAULT_VEHTYPE" speed="4.42" pos="2.21" lane=":1732879324_1_0" slope="0.00"/>
        <vehicle id="16" x="1389.81" y="2972.27" angle="31.69" type="DEFAULT_VEHTYPE" speed="5.46" pos="1.30" lane=":1176861097_4_0" slope="0.00"/>
        <vehicle id="17" x="1278.13" y="1969.07" angle="120.99" type="DEFAULT_VEHTYPE" speed="3.52" pos="4.05" lane=":156462456_4_0" slope="0.00"/>
        <vehicle id="18" x="1303.92" y="2816.64" angle="-30.34" type="DEFAULT_VEHTYPE" speed="2.01" pos="7.11" lane="-183000361#0_0" slope="0.00"/>
        <vehicle id="19" x="1841.35" y="2507.23" angle="-160.95" type="DEFAULT_VEHTYPE" speed="0.00" pos="5.10" lane="-19363611#2_0" slope="0.00"/>
        <vehicle id="2" x="1845.91" y="2483.37" angle="18.39" type="DEFAULT_VEHTYPE" speed="8.87" pos="9.43" lane="19363611#3_0" slope="0.00"/>
        <vehicle id="4" x="1517.05" y="2665.73" angle="100.92" type="DEFAULT_VEHTYPE" speed="13.42" pos="170.16" lane="27692319_0" slope="0.00"/>
        <vehicle id="6" x="2112.83" y="1748.64" angle="-164.32" type="DEFAULT_VEHTYPE" speed="12.52" pos="3.77" lane=":1942799876_2_0" slope="0.00"/>
        <vehicle id="8" x="2176.83" y="3032.11" angle="86.88" type="DEFAULT_VEHTYPE" speed="21.65" pos="102.62" lane="227846819#5_1" slope="0.00"/>
        <vehicle id="9" x="1554.10" y="2555.01" angle="-78.82" type="DEFAULT_VEHTYPE" speed="7.06" pos="71.66" lane="24512160#1_0" slope="0.00"/>
    </timestep>
    <timestep time="20.00">
        <vehicle id="11" x="1527.42" y="2582.89" angle="-62.76" type="DEFAULT_VEHTYPE" speed="6.04" pos="0.68" lane=":2853302701_2_0" slope="0.00"/>
        <vehicle id="12" x="2195.99" y="2305.72" angle="-135.51" type="DEFAULT_VEHTYPE" speed="13.36" pos="74.50" lane="-245047259#0_0" slope="0.00"/>
        <vehicle id="13" x="1390.90" y="2960.70" angle="44.31" type="DEFAULT_VEHTYPE" speed="8.51" pos="0.16" lane=":3094826796_3_0" slope="0.00"/>
        <vehicle id="14" x="2059.60" y="1835.02" angle="-143.81" type="DEFAULT_VEHTYPE" speed="11.15" pos="14.50" lane="357828267#3_0" slope="0.00"/>
        <vehicle id="15" x="1523.32" y="2955.06" angle="61.23" type="DEFAULT_VEHTYPE" speed="4.44" pos="6.65" lane=":1732879324_1_0" slope="0.00"/>
        <vehicle id="16" x="1395.46" y="2968.21" angle="60.30" type="DEFAULT_VEHTYPE" speed="7.14" pos="0.07" lane="121173790_0" slope="0.00"/>
        <vehicle id="17" x="1279.70" y="1974.87" angle="165.62" type="DEFAULT_VEHTYPE" speed="5.98" pos="3.58" lane=":2912876774_0_1" slope="0.00"/>
        <vehicle id="18" x="1301.90" y="2813.18" angle="-30.34" type="DEFAULT_VEHTYPE" speed="4.00" pos="11.11" lane="-183000361#0_0" slope="0.00"/>
        <vehicle id="19" x="1840.55" y="2509.54" angle="-160.95" type="DEFAULT_VEHTYPE" speed="2.44" pos="7.54" lane="-19363611#2_0" slope="0.00"/>
        <vehicle id="2" x="1849.39" y="2472.91" angle="18.39" type="DEFAULT_VEHTYPE" speed="11.03" pos="20.45" lane="19363611#3_0" slope="0.00"/>
        <vehicle id="20" x="1878.27" y="1847.06" angle="52.19" type="DEFAULT_VEHTYPE" speed="0.00" pos="5.10" lane="-24600426_0" slope="0.00"/>
        <vehicle id="4" x="1529.96" y="2668.22" angle="100.92" type="DEFAULT_VEHTYPE" speed="13.14" pos="183.31" lane="27692319_0" slope="0.00"/>
        <vehicle id="6" x="2111.34" y="1757.11" angle="-174.18" type="DEFAULT_VEHTYPE" speed="8.66" pos="3.53" lane=":269849415_7_0" slope="0.00"/>
        <vehicle id="8" x="2197.09" y="3030.77" angle="84.24" type="DEFAULT_VEHTYPE" speed="20.30" pos="122.91" lane="227846819#5_1" slope="0.00"/>
        <vehicle id="9" x="1547.17" y="2553.64" angle="-78.82" type="DEFAULT_VEHTYPE" speed="7.07" pos="78.73" lane="24512160#1_0" slope="0.00"/>
    </timestep>
    <timestep time="21.00">
        <vehicle id="11" x="1532.14" y="2581.71" angle="100.71" type="DEFAULT_VEHTYPE" speed="7.46" pos="3.32" lane="19363182#6_0" slope="0.00"/>
        <vehicle id="12" x="2186.57" y="2315.31" angle="-135.51" type="DEFAULT_VEHTYPE" speed="13.44" pos="87.94" lane="-245047259#0_0" slope="0.00"/>
        <vehicle id="13" x="1395.00" y="2957.97" angle="56.41" type="DEFAULT_VEHTYPE" speed="4.93" pos="5.09" lane=":3094826796_3_0" slope="0.00"/>
        <vehicle id="14" x="2052.24" y="1845.10" angle="-143.91" type="DEFAULT_VEHTYPE" speed="12.47" pos="0.29" lane=":565464491_0_0" slope="0.00"/>
        <vehicle id="15" x="1524.44" y="2954.85" angle="70.66" type="DEFAULT_VEHTYPE" speed="1.14" pos="7.79" lane=":1732879324_1_0" slope="0.00"/>
        <vehicle id="16" x="1404.19" y="2967.09" angle="82.66" type="DEFAULT_VEHTYPE" speed="8.81" pos="8.88" lane="121173790_0" slope="0.00"/>
        <vehicle id="17" x="1282.13" y="1982.98" angle="162.66" type="DEFAULT_VEHTYPE" speed="8.40" pos="11.98" lane=":2912876774_0_1" slope="0.00"/>
        <vehicle id="18" x="1299.53" y="2809.14" angle="-30.34" type="DEFAULT_VEHTYPE" speed="4.68" pos="15.79" lane="-183000361#0_0" slope="0.00"/>
        <vehicle id="19" x="1838.97" y="2514.11" angle="-160.95" type="DEFAULT_VEHTYPE" speed="4.84" pos="12.38" lane="-19363611#2_0" slope="0.00"/>
        <vehicle id="2" x="1854.23" y="2460.82" angle="27.54" type="DEFAULT_VEHTYPE" speed="13.12" pos="2.62" lane=":201300864_4_0" slope="0.00"/>
        <vehicle id="20" x="1879.88" y="1845.81" angle="52.19" type="DEFAULT_VEHTYPE" speed="2.04" pos="7.14" lane="-24600426_0" slope="0.00"/>
        <vehicle id="21" x="1726.30" y="2859.80" angle="-25.15" type="DEFAULT_VEHTYPE" speed="0.00" pos="0.29" lane="183786378#1_0" slope="0.00"/>
        <vehicle id="4" x="1543.12" y="2670.75" angle="100.92" type="DEFAULT_VEHTYPE" speed="13.41" pos="196.72" lane="27692319_0" slope="0.00"/>
        <vehicle id="6" x="2110.99" y="1761.26" angle="-175.55" type="DEFAULT_VEHTYPE" speed="4.16" pos="7.69" lane=":269849415_7_0" slope="0.00"/>
        <vehicle id="8" x="2213.04" y="3028.69" angle="82.56" type="DEFAULT_VEHTYPE" speed="16.07" pos="138.99" lane="227846819#5_1" slope="0.00"/>
        <vehicle id="9" x="1539.61" y="2552.15" angle="-78.82" type="DEFAULT_VEHTYPE" speed="7.71" pos="86.44" lane="24512160#1_0" slope="0.00"/>
    </timestep>
    <timestep time="22.00">
        <vehicle id="11" x="1540.35" y="2585.16" angle="112.82" type="DEFAULT_VEHTYPE" speed="8.91" pos="12.23" lane="19363182#6_0" slope="0.00"/>
        <vehicle id="12" x="2180.30" y="2321.69" angle="-135.51" type="DEFAULT_VEHTYPE" speed="8.94" pos="96.88" lane="-245047259#0_0" slope="0.00"/>
        <vehicle id="13" x="1395.65" y="2957.54" angle="56.41" type="DEFAULT_VEHTYPE" speed="0.78" pos="5.87" lane=":3094826796_3_0" slope="0.00"/>
        <vehicle id="14" x="2044.71" y="1856.66" angle="-147.88" type="DEFAULT_VEHTYPE" speed="13.80" pos="8.23" lane="357828267#4_0" slope="0.00"/>
        <vehicle id="15" x="1524.28" y="2951.55" angle="116.08" type="DEFAULT_VEHTYPE" speed="0.48" pos="0.29" lane="98877467#5_0" slope="0.00"/>
        <vehicle id="16" x="1414.52" y="2965.46" angle="80.46" type="DEFAULT_VEHTYPE" speed="10.64" pos="7.43" lane="14312242#0_0" slope="0.00"/>
        <vehicle id="17" x="1285.76" y="1992.81" angle="156.25" type="DEFAULT_VEHTYPE" speed="10.64" pos="8.95" lane="23209159#2_1" slope="0.00"/>
        <vehicle id="18" x="1296.79" y="2804.46" angle="-30.34" type="DEFAULT_VEHTYPE" speed="5.43" pos="21.22" lane="-183000361#0_0" slope="0.00"/>
        <vehicle id="19" x="1836.81" y="2520.36" angle="-160.95" type="DEFAULT_VEHTYPE" speed="6.61" pos="18.98" lane="-19363611#2_0" slope="0.00"/>
        <vehicle id="2" x="1864.93" y="2452.28" angle="57.56" type="DEFAULT_VEHTYPE" speed="13.87" pos="7.32" lane=":258828605_7_0" slope="0.00"/>
        <vehicle id="20" x="1882.99" y="1843.40" angle="52.19" type="DEFAULT_VEHTYPE" speed="3.93" pos="11.07" lane="-24600426_0" slope="0.00"/>
        <vehicle id="21" x="1725.47" y="2858.02" angle="-25.13" type="DEFAULT_VEHTYPE" speed="1.97" pos="1.97" lane=":1941963444_0_0" slope="0.00"/>
        <vehicle id="4" x="1555.89" y="2673.22" angle="100.92" type="DEFAULT_VEHTYPE" speed="13.00" pos="209.72" lane="27692319_0" slope="0.00"/>
        <vehicle id="6" x="2110.93" y="1761.65" angle="-175.12" type="DEFAULT_VEHTYPE" speed="0.40" pos="8.09" lane=":269849415_7_0" slope="0.00"/>
        <vehicle id="8" x="2225.55" y="3027.06" angle="82.56" type="DEFAULT_VEHTYPE" speed="12.61" pos="151.59" lane="227846819#5_1" slope="0.00"/>
        <vehicle id="9" x="1532.19" y="2550.68" angle="-78.82" type="DEFAULT_VEHTYPE" speed="7.56" pos="94.00" lane="24512160#1_0" slope="0.00"/>
    </timestep>
    <timestep time="23.00">
        <vehicle id="11" x="1550.46" y="2589.42" angle="112.82" type="DEFAULT_VEHTYPE" speed="10.97" pos="23.20" lane="19363182#6_0" slope="0.00"/>
        <vehicle id="12" x="2177.11" y="2324.94" angle="-135.51" type="DEFAULT_VEHTYPE" speed="4.55" pos="101.43" lane="-245047259#0_0" slope="0.00"/>
        <vehicle id="13" x="1396.11" y="2957.25" angle="56.53" type="DEFAULT_VEHTYPE" speed="0.54" pos="0.20" lane="125725759#4_0" slope="0.00"/>
        <vehicle id="14" x="2036.58" y="1869.61" angle="-147.88" type="DEFAULT_VEHTYPE" speed="15.29" pos="23.52" lane="357828267#4_0" slope="0.00"/>
        <vehicle id="15" x="1526.25" y="2951.23" angle="92.18" type="DEFAULT_VEHTYPE" speed="1.90" pos="1.54" lane=":240150533_7_0" slope="0.00"/>
        <vehicle id="16" x="1427.10" y="2963.31" angle="80.07" type="DEFAULT_VEHTYPE" speed="12.79" pos="20.23" lane="14312242#0_0" slope="0.00"/>
        <vehicle id="17" x="1290.91" y="2004.53" angle="156.25" type="DEFAULT_VEHTYPE" speed="13.02" pos="21.97" lane="23209159#2_1" slope="0.00"/>
        <vehicle id="18" x="1294.42" y="2800.40" angle="-30.34" type="DEFAULT_VEHTYPE" speed="4.70" pos="25.92" lane="-183000361#0_0" slope="0.00"/>
        <vehicle id="19" x="1834.20" y="2527.93" angle="-160.95" type="DEFAULT_VEHTYPE" speed="8.01" pos="26.99" lane="-19363611#2_0" slope="0.00"/>
        <vehicle id="2" x="1876.72" y="2445.23" angle="59.40" type="DEFAULT_VEHTYPE" speed="13.74" pos="11.67" lane="19363611#5_0" slope="0.00"/>
        <vehicle id="20" x="1887.21" y="1840.13" angle="52.19" type="DEFAULT_VEHTYPE" speed="5.34" pos="16.41" lane="-24600426_0" slope="0.00"/>
        <vehicle id="21" x="1723.97" y="2854.85" angle="-25.18" type="DEFAULT_VEHTYPE" speed="3.51" pos="1.00" lane=":1941963442_0_0" slope="0.00"/>
        <vehicle id="23" x="2065.81" y="1810.99" angle="10.07" type="DEFAULT_VEHTYPE" speed="0.00" pos="5.10" lane="173339796#0_0" slope="0.00"/>
        <vehicle id="4" x="1568.93" y="2675.73" angle="100.92" type="DEFAULT_VEHTYPE" speed="13.28" pos="223.00" lane="27692319_0" slope="0.00"/>
        <vehicle id="6" x="2110.89" y="1761.92" angle="-174.83" type="DEFAULT_VEHTYPE" speed="0.27" pos="8.36" lane=":269849415_7_0" slope="0.00"/>
        <vehicle id="8" x="2233.63" y="3025.98" angle="82.35" type="DEFAULT_VEHTYPE" speed="8.11" pos="4.98" lane=":1342943269_7_1" slope="0.00"/>
        <vehicle id="9" x="1524.59" y="2548.61" angle="-73.88" type="DEFAULT_VEHTYPE" speed="7.89" pos="101.89" lane="24512160#1_0" slope="0.00"/>
    </timestep>
    <timestep time="24.00">
        <vehicle id="11" x="1562.44" y="2594.46" angle="112.82" type="DEFAULT_VEHTYPE" speed="12.99" pos="36.19" lane="19363182#6_0" slope="0.00"/>
        <vehicle id="12" x="2171.40" y="2327.73" angle="-112.00" type="DEFAULT_VEHTYPE" speed="6.55" pos="6.40" lane=":201268065_6_0" slope="0.00"/>
        <vehicle id="13" x="1398.41" y="2956.13" angle="60.41" type="DEFAULT_VEHTYPE" speed="2.56" pos="2.56" lane=":1387235945_1_0" slope="0.00"/>
        <vehicle id="14" x="2027.29" y="1884.41" angle="-147.88" type="DEFAULT_VEHTYPE" speed="17.47" pos="40.99" lane="357828267#4_0" slope="0.00"/>
        <vehicle id="15" x="1529.71" y="2950.43" angle="77.86" type="DEFAULT_VEHTYPE" speed="3.56" pos="5.11" lane=":240150533_7_0" slope="0.00"/>
        <vehicle id="16" x="1439.40" y="2960.74" angle="78.18" type="DEFAULT_VEHTYPE" speed="12.59" pos="32.81" lane="14312242#0_0" slope="0.00"/>
        <vehicle id="17" x="1293.92" y="2018.13" angle="176.52" type="DEFAULT_VEHTYPE" speed="14.33" pos="36.30" lane="23209159#2_1" slope="0.00"/>
        <vehicle id="18" x="1292.16" y="2796.55" angle="-30.34" type="DEFAULT_VEHTYPE" speed="4.46" pos="30.38" lane="-183000361#0_0" slope="0.00"/>
        <vehicle id="19" x="1832.12" y="2532.31" angle="-154.62" type="DEFAULT_VEHTYPE" speed="4.98" pos="0.97" lane=":258828607_1_0" slope="0.00"/>
        <vehicle id="2" x="1887.08" y="2439.10" angle="59.40" type="DEFAULT_VEHTYPE" speed="12.04" pos="23.71" lane="19363611#5_0" slope="0.00"/>
        <vehicle id="20" x="1891.16" y="1838.51" angle="66.05" type="DEFAULT_VEHTYPE" speed="4.49" pos="2.54" lane=":156915462_7_0" slope="0.00"/>